# vtk DataFile Version 4.2
vtk output
ASCII
DATASET RECTILINEAR_GRID
DIMENSIONS 27 28 24
X_COORDINATES 27 double
-350 -150 -50 0 50 100 150 200 250 
300 350 400 450 500 550 600 650 700 
750 800 850 900 950 1000 1050 1150 1350 

Y_COORDINATES 28 double
-400 -200 -100 -50 0 50 100 150 200 
250 300 350 400 450 500 550 600 650 
700 750 800 850 900 950 1000 1050 1150 
1350 
Z_COORDINATES 24 double
-850 -650 -550 -500 -475 -450 -425 -400 -375 
-350 -325 -300 -275 -250 -225 -200 -175 -150 
-125 -100 -75 -50 -25 0 
CELL_DATA 16146
SCALARS Random%20Data double
LOOKUP_TABLE default
0.76428345406 0.52692318356 0.63235103176 0.10723342475 0.97155302363 0.65498948879 0.32113824417 0.86917503538 0.98413842208 
0.4666343902 0.98663091953 0.53643613001 0.78043966273 0.56681770869 0.87342339506 0.94580552206 0.34946385402 0.39921427049 
0.94899669287 0.68181819014 0.36522247298 0.8577212438 0.097018047129 0.72271252131 0.92782574434 0.94006525084 0.40044167357 
0.99916900623 0.30658853233 0.031174242824 0.82845791989 0.5085869595 0.13731531534 0.46920733737 0.75460141966 0.32142461243 
0.19301681412 0.54299555745 0.69417873742 0.56825676314 0.22678681997 0.31345880019 0.27797379415 0.05809412739 0.94989460948 
0.078069075645 0.0015940915537 0.75489936034 0.57470479739 0.77084113343 0.6239029741 0.099516477366 0.1211588774 0.35849274812 
0.060829982451 0.16262157894 0.8086860881 0.57032086867 0.066039207605 0.44630695048 0.7225120962 0.27030810818 0.29209874016 
0.53602408971 0.22459204811 0.025003901365 0.66156600114 0.7084184443 0.87351678967 0.95230561771 0.34532076199 0.75842960437 
0.067265188724 0.21463457491 0.36594486072 0.63324929056 0.89634277105 0.099563006924 0.45444950878 0.56739926956 0.45837427986 
0.59949779002 0.25597810256 0.64300563346 0.67218290954 0.70805705421 0.27118327056 0.16362887527 0.57886875592 0.52700021452 
0.61853266992 0.041921082865 0.66240511205 0.86206392959 0.49406745516 0.79839421954 0.94355023118 0.14305123592 0.30436890718 
0.74806237971 0.37345720914 0.9910223524 0.53171673252 0.79235121647 0.90492511558 0.7750209522 0.9830284013 0.5275725732 
0.73459421527 0.1150937078 0.19043060776 0.7281047833 0.9773111665 0.58566756817 0.88677099352 0.040632864564 0.32028165647 
0.26211712794 0.89545946564 0.61064222939 0.16098547022 0.87757773136 0.72001168883 0.18155232458 0.051933911472 0.7386693007 
0.82757147234 0.68872418016 0.083512215883 0.084533479489 0.80110935669 0.38232865268 0.67591355882 0.41168411252 0.34045282302 
0.72679037746 0.71606509119 0.60646194233 0.55847911338 0.58988780194 0.63871511619 0.26742943134 0.7012154701 0.73384854994 
0.79247773408 0.83082016979 0.17008016157 0.83413114301 0.18510517762 0.23224754398 0.81610369307 0.58461565517 0.97763881866 
0.47567323953 0.91600467798 0.015734696536 0.96947514039 0.21298375627 0.62579097749 0.015310249633 0.29288616595 0.47516518761 
0.066495445398 0.76049598504 0.00080773931852 0.087623455343 0.097299230511 0.85286604092 0.51124712113 0.65186343561 0.75602403006 
0.9565850896 0.011676234645 0.99222168006 0.35097946977 0.46553593394 0.87444218872 0.078925100141 0.88493401882 0.95321299563 
0.26834087504 0.83261467087 0.081316998365 0.39363328663 0.71513254141 0.72654236763 0.31112865173 0.85603734816 0.81306250297 
0.43524791041 0.11634119468 0.63355656773 0.61185378972 0.78769612612 0.72240664694 0.0025797400209 0.48373355035 0.73844825836 
0.13737944792 0.76220970611 0.17596090819 0.08117873539 0.38949242195 0.34330911867 0.47603856009 0.69498500007 0.77791281482 
0.33757398827 0.53818552295 0.90706351634 0.99297704003 0.58865068128 0.94760646564 0.66415636614 0.89196819866 0.051842958937 
0.84556721671 0.60904881219 0.15960563428 0.3566641734 0.33536529507 0.54109157294 0.95000206449 0.70032206516 0.48279234239 
0.38825858975 0.16618712464 0.29537635742 0.10538396082 0.016271289503 0.20255021839 0.21670025505 0.0016439494928 0.032082856749 
0.23159712058 0.11801004926 0.37980740704 0.47543762343 0.40838130113 0.85384898448 0.85467983884 0.1940613629 0.16397287631 
0.90388393718 0.011193741766 0.94594889096 0.54273021064 0.48160587735 0.26766232044 0.95986426912 0.86522182405 0.88542407534 
0.13906496568 0.046081117046 0.46766400799 0.45434843412 0.759155394 0.6891402239 0.2659272864 0.98947226281 0.99349034489 
0.24623821776 0.43187476963 0.26093602326 0.53848843948 0.87968160732 0.96237529114 0.054096083396 0.382646367 0.16798134527 
0.95544049212 0.69898884447 0.86808653354 0.37660802908 0.83136963109 0.85513743183 0.064859410192 0.69853968511 0.60280976074 
0.33627530413 0.51847591878 0.67473929636 0.47207802785 0.10036407747 0.76605871636 0.15191856162 0.91291846812 0.95748502375 
0.75737062813 0.4489474367 0.046343837053 0.88780484737 0.92864794019 0.032980913156 0.34865588392 0.41160567466 0.53495731848 
0.95689104843 0.72362465061 0.42672920668 0.85814017374 0.2803519451 0.94645308668 0.98357337972 0.53297396433 0.42682113042 
0.38162951272 0.32063165349 0.6447551371 0.0012087210084 0.98259637713 0.57176683265 0.63335990754 0.088614637007 0.81928183191 
0.44488045962 0.34764061186 0.93094652733 0.48068752625 0.43683509144 0.0035384601605 0.89514764062 0.10694643872 0.75712540024 
0.035511606265 0.46469889223 0.63418295297 0.91929059378 0.12003639286 0.84998040456 0.28457926871 0.8810890092 0.86273447379 
0.18985899783 0.8069264747 0.42194076915 0.43670961804 0.93701800996 0.5877714418 0.59731095151 0.5352421215 0.17887862701 
0.33343995992 0.45275697907 0.5347950063 0.41366725598 0.42159583992 0.042343157392 0.98048479753 0.82176447745 0.74066781431 
0.89445615932 0.24915179314 0.56051099019 0.39323024119 0.0015519320618 0.89088610179 0.29691120073 0.081795243217 0.59097283282 
0.34057827273 0.88836703914 0.022112337253 0.94364538281 0.51087638945 0.02854823403 0.47731533841 0.12959470405 0.7266130006 
0.11707502223 0.019425252386 0.25701708563 0.74036200616 0.25650179057 0.26572379774 0.84738828119 0.94928203662 0.96678887971 
0.41898835098 0.72515163745 0.39741771504 0.15904447145 0.73631231006 0.30383516323 0.019055342739 0.19941350187 0.61354477048 
0.93383166311 0.45115208937 0.054109901363 0.28550841356 0.6586435108 0.9847861992 0.43529524276 0.70912095087 0.52435741731 
0.28648694405 0.32107418222 0.24718315867 0.828307174 0.25804912881 0.71398440426 0.73849476995 0.57017109392 0.012797601183 
0.82288575585 0.96741914836 0.23613540382 0.84098698352 0.34680562137 0.81931571549 0.58930275609 0.8319081551 0.29916785929 
0.11056340577 0.24256419222 0.19887634643 0.91537851536 0.72601822691 0.8632120194 0.36178075547 0.63598137929 0.87987748866 
0.062470707752 0.82247728976 0.12787376486 0.3743030729 0.62886200169 0.88316980001 0.40055638164 0.58227648747 0.83276065091 
0.49215607656 0.80522147027 0.020097004616 0.15070572441 0.83003790055 0.093720639137 0.32312043347 0.50075292864 0.30331658123 
0.013391564054 0.28607554968 0.24007620432 0.69273530443 0.79423668614 0.27263435001 0.59707247744 0.99887379828 0.20832477849 
0.8136762443 0.32862583672 0.24405556501 0.84011960044 0.24639413415 0.92177808051 0.71449686271 0.47839357601 0.34468517699 
0.73865103803 0.23041951661 0.34285440496 0.79603669075 0.65940365209 0.96255898924 0.19238132885 0.83454386944 0.18053338729 
0.072852796701 0.52442723974 0.73303387492 0.34934001585 0.57350206488 0.75737968617 0.39559241848 0.01322621246 0.94343905678 
0.30702402704 0.40617708877 0.48699844889 0.021843715133 0.30485734912 0.78589645306 0.38150837002 0.56015360647 0.89858496122 
0.61232894988 0.095320213667 0.91095911145 0.83521354181 0.79562408112 0.29627877425 0.69077346853 0.7959285933 0.44398012902 
0.41401220993 0.081801110473 0.7933932224 0.90732300985 0.40515822687 0.33351444214 0.28682245193 0.82581101901 0.76203477518 
0.16328375853 0.69838454391 0.48830984114 0.047621922093 0.83248521272 0.68338551351 0.36577436115 0.12550662585 0.56145127119 
0.74121365669 0.63028879151 0.89352328235 0.1668328647 0.063600323505 0.15229216109 0.021194195553 0.021066641276 0.99136993158 
0.76259060232 0.25274390412 0.18172885246 0.99547101381 0.70446815253 0.016852670583 0.92931945329 0.72665679702 0.12640817722 
0.12003170094 0.26546104727 0.29597384747 0.29475917314 0.17261674795 0.97784126246 0.82102289951 0.71788575006 0.25409039952 
0.68297649521 0.55589157162 0.86383249973 0.40892178875 0.46237210719 0.016860030043 0.082511087187 0.69997849244 0.37441611876 
0.36169169111 0.82787407438 0.83426957902 0.36418601515 0.058763530275 0.12965376634 0.016346270645 0.027079303061 0.1234689982 
0.57621868883 0.64828810711 0.011065093506 0.70858090161 0.80362191458 0.48516123986 0.86922323411 0.96304456467 0.43908715002 
0.87078755038 0.96483650237 0.59013155239 0.36761465337 0.68562864193 0.28234165153 0.42356814928 0.33293776208 0.37346501545 
0.46528382772 0.26198253839 0.64486448511 0.77301449595 0.58293715399 0.28122348129 0.26352204078 0.1792130496 0.99279995021 
0.018088031266 0.6058767746 0.79342265305 0.27487760918 0.29354202973 0.54145871501 0.42613971109 0.85687139122 0.024670403893 
0.7205099953 0.77846854151 0.21503707174 0.34731120587 0.18330592986 0.96355550568 0.48032392127 0.5810131917 0.1138489722 
0.41563751495 0.095522593797 0.4993610635 0.44411855629 0.67117366367 0.27321564607 0.40872265739 0.078309155051 0.90032264627 
0.28361265555 0.42400112622 0.48915327669 0.27369079928 0.50192135045 0.23701619603 0.19895020116 0.86743014306 0.28416050818 
0.063988217408 0.0088955131086 0.69547343991 0.96226962005 0.099908489369 0.51811291732 0.42795553201 0.90839224389 0.12539803676 
0.6051023079 0.47528736778 0.39235706713 0.35259030497 0.15813748632 0.51908495178 0.75335881248 0.70554040876 0.016792193801 
0.89541206108 0.8812194083 0.077254315268 0.099122817858 0.12564225618 0.3771955869 0.92750991193 0.4707477381 0.49576680312 
0.19657144186 0.45610544562 0.99371385973 0.51470105653 0.28332538978 0.98811354067 0.68123219038 0.93386792766 0.22087856844 
0.25095481277 0.44047560506 0.24609881732 0.051966450184 0.84776776474 0.17542626578 0.53505950841 0.70260038578 0.27027905047 
0.40461330522 0.4090105065 0.047240035569 0.24600481283 0.7402197796 0.014023963936 0.9444989888 0.48030193682 0.56226804249 
0.21252240701 0.17650368844 0.81464280703 0.80823577846 0.62245223152 0.94315309281 0.54764470119 0.28276530741 0.079495011822 
0.9449861962 0.78465809392 0.058859014865 0.39588846871 0.58566056839 0.28790146198 0.60525965012 0.47647603471 0.16199853616 
0.43255461206 0.60151848634 0.52648164027 0.10652536021 0.73242830228 0.45335763729 0.64366138807 0.22598608983 0.70489922433 
0.45558287608 0.30045733486 0.085460823259 0.95782310585 0.6984756596 0.39746232253 0.38190811117 0.52062266511 0.94523808894 
0.42345034607 0.63354377189 0.53429478717 0.66757700625 0.57119169376 0.53730935293 0.51472133587 0.067620377392 0.58940063485 
0.57926828676 0.36559584775 0.43656135702 0.61141484801 0.77721726673 0.63409386892 0.31864206091 0.50663902842 0.74623333605 
0.11429662097 0.49239253731 0.45671752984 0.64845480077 0.5254587522 0.78778619557 0.45031252525 0.57768000879 0.75460484675 
0.033177767904 0.61059766283 0.24466017717 0.57738054689 0.70457775834 0.64872935145 0.38321502939 0.56592357504 0.31668679791 
0.16791481862 0.89166237449 0.99906703701 0.0288431799 0.59013590783 0.91727545859 0.34220547665 0.50495307669 0.5187315301 
0.52494403942 0.83444284283 0.15173428476 0.4314774448 0.8476959444 0.11083369503 0.80786292462 0.4210562129 0.4276307456 
0.77714389996 0.63215852345 0.23169824319 0.98988062986 0.07336598783 0.71482156552 0.33207827999 0.70117887559 0.10416752003 
0.47515780225 0.092099159407 0.8497131495 0.33343741057 0.0056774192117 0.93364434152 0.060420958676 0.22838017383 0.62440321028 
0.54831293951 0.36184908873 0.61463793684 0.33980922198 0.46558145735 0.86032173685 0.34416194349 0.30846457417 0.51850365691 
0.1965574804 7.8275964261e-05 0.086534507799 0.84209901173 0.64367776989 0.21955665873 0.76236792814 0.28490070073 0.79315358005 
0.22978837804 0.90132801321 0.024252185056 0.10074734326 0.2236625684 0.5938052295 0.634493015 0.52801965589 0.83246407763 
0.097361525229 0.93414728461 0.67970076707 0.71015259604 0.076967699853 0.5412183816 0.553828433 0.049332800138 0.54345441704 
0.76455363941 0.5811784694 0.43943668019 0.17717922554 0.72319223194 0.8565158602 0.013229945558 0.55452125269 0.42729023884 
0.61860088087 0.0013759225733 0.33675998514 0.87476976113 0.16421064048 0.12476995021 0.21507276819 0.027952560191 0.52752967555 
0.47026125097 0.73314549271 0.32092788863 0.39198197941 0.52773553493 0.17691861113 0.84919236103 0.29842283869 0.23989474163 
0.12394845315 0.110099641 0.46877612309 0.50281265795 0.24063963346 0.34125494927 0.022492436991 0.32105959534 0.19100644243 
0.71890300895 0.64442157922 0.59279769798 0.28971180672 0.42407331889 0.18154198117 0.52874700945 0.57911146341 0.77808397441 
0.74118907612 0.58191787978 0.90589933856 0.62123082581 0.12076677382 0.95940981951 0.90784543973 0.91106640728 0.60107781473 
0.2277405774 0.67863407827 0.094066184054 0.87516572905 0.50934137195 0.98750884099 0.0043418296243 0.48638480328 0.64633316763 
0.28907431964 0.54048268579 0.039491452322 0.38452650586 0.43933824783 0.84623018466 0.6727050602 0.65478561175 0.36663889735 
0.72538018839 0.73672654412 0.93688822475 0.31981660193 0.85865371344 0.55485297803 0.83510803432 0.079842742758 0.40752305893 
0.41995755801 0.40011327352 0.9261397001 0.99290952305 0.72821454981 0.98429513615 0.20234159808 0.10799862008 0.91134227506 
0.52120881515 0.75495625744 0.16440459887 0.021364336935 0.28796690144 0.11896750118 0.94718816378 0.98673658771 0.35822728919 
0.17498373717 0.48287634077 0.30679349694 0.022295768511 0.45401604105 0.14583783755 0.74515001366 0.88182404859 0.018806987084 
0.92034090838 0.70128304921 0.21613119532 0.95640711385 0.22582119038 0.81666001954 0.40823692224 0.38097153574 0.55287534165 
0.020715831185 0.71612353424 0.60438348317 0.59858798576 0.34903769951 0.61216813498 0.86361103174 0.9708923101 0.2495635146 
0.64327042553 0.1581755114 0.28396321296 0.94215648711 0.29685773995 0.73564912499 0.77270635951 0.56682032712 0.11829837169 
0.016714977103 0.71042200572 0.36450445988 0.79400207591 0.065840913346 0.62877153838 0.36767591011 0.49473829995 0.75507903638 
0.91334774321 0.26397839302 0.023575244273 0.84628382843 0.83426581626 0.84530493251 0.18110616331 0.58862621878 0.89455504742 
0.97053234122 0.50558894525 0.6498799395 0.72918226033 0.65370888966 0.34427157128 0.39346281399 0.69664148492 0.25131707761 
0.50648445882 0.78898880777 0.52349046429 0.82883875993 0.16272789706 0.064238105841 0.35312732739 0.10823340021 0.42835184496 
0.13779976865 0.48300031451 0.6975522127 0.78375534755 0.96157562124 0.84516243497 0.79616804188 0.44173697126 0.12997937952 
0.48405838682 0.46751392303 0.65911293386 0.99641132375 0.31200787742 0.63348427716 0.65702572891 0.29418768755 0.20419445466 
0.6085437607 0.64306840686 0.40454796598 0.53848204535 0.048645288199 0.15035210565 0.75408726234 0.42490529188 0.26541937603 
0.52773738184 0.61484812439 0.0032925218752 0.63743908547 0.59643189824 0.23883488629 0.33466447681 0.16177565094 0.53615894548 
0.39500252662 0.37271189869 0.23807677631 0.72445012349 0.50002850666 0.15921694893 0.74767345837 0.23543335277 0.46793609698 
0.25301825399 0.85951722513 0.049526537261 0.17378683454 0.94694760329 0.98648491688 0.30798986479 0.6267130502 0.56541455466 
0.33752732719 0.79851724588 0.18088810154 0.13939075512 0.32572851949 0.74793987043 0.66353591467 0.78257113789 0.80584832724 
0.87946716937 0.78865679688 0.83725086271 0.94760085291 0.49532953926 0.92205953452 0.066737675624 0.32141011329 0.78836022121 
0.38252600699 0.53255035405 0.36003750471 0.50276413287 0.087862778417 0.85864351821 0.32312112663 0.64689230518 0.34372152761 
0.21697577478 0.34557360228 0.50933271129 0.017510501943 0.32480533174 0.83544712032 0.85715156652 0.037411100957 0.7020941328 
0.68496824625 0.22154389196 0.74984118112 0.71731044848 0.63480879503 0.31274445764 0.71419947373 0.61242948122 0.53264319181 
0.38970812353 0.31841135081 0.70952688855 0.14682164699 0.42780232416 0.17252154934 0.32800467117 0.25091855741 0.83761475242 
0.052733836176 0.76037203239 0.88609826179 0.016366546796 0.17543974663 0.50004056588 0.56005338663 0.19466760751 0.61368280906 
0.43989165126 0.55447595366 0.021937883789 0.41092779495 0.35910619007 0.29367053455 0.29653510809 0.0038850215157 0.4274660801 
0.82186362545 0.17342710522 0.45251520575 0.46010217308 0.42515035263 0.90551708009 0.14977374725 0.99422211048 0.060982024618 
0.40360272942 0.84608409453 0.22784347928 0.5033603268 0.70446145743 0.17145692993 0.46572676482 0.53813233272 0.43189183659 
0.45421741725 0.68137734671 0.35513492366 0.84679723716 0.30491388173 0.04518631947 0.60242982387 0.0066073826004 0.15212087371 
0.92708815367 0.77725549903 0.46931693564 0.73720620295 0.024951006321 0.097952490746 0.8655214776 0.077983094115 0.71545212541 
0.11450255896 0.076370629059 0.62854630842 0.015696256423 0.29410058633 0.24322835433 0.81450919308 0.28077198816 0.42540743636 
0.6621387636 0.24758557674 0.15516417752 0.0080649988323 0.22302699725 0.98884366204 0.35558062576 0.78511690988 0.061392750248 
0.45518803483 0.27293824775 0.76074563866 0.012382728319 0.02783796359 0.85568434021 0.68092168889 0.78625391478 0.52617415325 
0.18424900447 0.028272717233 0.7026572366 0.20375855718 0.26957957591 0.86128002036 0.60756324329 0.18290147869 0.10957907794 
0.40235126531 0.032862400052 0.10150082649 0.57722489706 0.0059643199066 0.37920018093 0.45956869553 0.86735540446 0.15511448751 
0.72122024163 0.45119671447 0.37357461215 0.90489251317 0.12522246954 0.59157934025 0.98787926937 0.00073830400802 0.96186934345 
0.39420790839 0.66203123471 0.96456513168 0.71637532021 0.85681246132 0.36076297136 0.73840096134 0.54543370247 0.41794217076 
0.72749197714 0.38845612719 0.11917175546 0.63946893597 0.13630482341 0.16312048961 0.57218299199 0.80475904581 0.92344781843 
0.16522805852 0.87609082076 0.60725003606 0.83226065225 0.29308859728 0.55030638705 0.55917159235 0.74551141426 0.59381170982 
0.095405470311 0.28129835876 0.76072903204 0.2321556671 0.42067921983 0.5443242218 0.89508460758 0.8122988262 0.36051154009 
0.52086339739 0.30035980441 0.10212005722 0.311526383 0.31177400496 0.97042316214 0.27770403314 0.61234536328 0.20453450703 
0.83313929361 0.02009238637 0.38750919175 0.5309816984 0.99628155742 0.40951875485 0.47466403176 0.43607074625 0.44967188063 
0.040016781962 0.18345459699 0.38915997095 0.026902453617 0.093585015089 0.20468327835 0.94333844546 0.095117188794 0.43520550333 
0.25018816754 0.70039275094 0.41759974535 0.99262528359 0.26566144229 0.37898381468 0.23333708143 0.93411614402 0.32941506026 
0.26754797504 0.23379116342 0.71544922826 0.28609942212 0.32975759769 0.34633461811 0.85522137679 0.1426944398 0.56342896808 
0.3477442037 0.41889280214 0.79007929604 0.95309191612 0.14935075142 0.91975737483 0.70231327574 0.43761028182 0.22838110858 
0.15187929205 0.6138876307 0.49828890607 0.44213916048 0.6539252273 0.51542084391 0.37351943292 0.70026089461 0.35263287974 
0.019207243386 0.056696025536 0.89972949412 0.68252482611 0.0965606962 0.39644985745 0.63784278323 0.31014503376 0.89533656485 
0.32193376635 0.64044786398 0.47140155438 0.21047209751 0.62897697326 0.91565546445 0.15151139403 0.70378744758 0.39854034629 
0.25558837895 0.70055368197 0.54652570141 0.16529304133 0.44899915537 0.30796423853 0.87598739885 0.87069964197 0.71273877313 
0.078972115484 0.86340739599 0.5812913229 0.083975565181 0.37364985626 0.19382223494 0.019500830142 0.80393333007 0.25575009641 
0.86869217924 0.99414338391 0.16599902764 0.38176885056 0.32390334917 0.93393895048 0.19680464922 0.88159719376 0.7399188773 
0.46374837966 0.76938950904 0.52769562012 0.72566219107 0.27525264484 0.082542818861 0.93032239499 0.84826267866 0.21701634216 
0.67730712883 0.76087154996 0.29534687063 0.64149010364 0.33555777492 0.087293117536 0.82086379993 0.59963138434 0.7806019803 
0.13551119949 0.51549186346 0.98154316651 0.82082749888 0.88585627776 0.91007358003 0.50196956246 0.072102850933 0.4029546364 
0.15461024406 0.85105513524 0.60242092358 0.98760099265 0.27911479716 0.82267939868 0.41651689132 0.015873529386 0.092949061758 
0.34496135676 0.40352799595 0.35322787526 0.58859983599 0.41453747913 0.6267016514 0.64033707735 0.73272524133 0.93776248308 
0.59362012684 0.53450977895 0.98252773948 0.8299615779 0.97747073976 0.11207639565 0.15389459835 0.41640113891 0.74981744052 
0.027947706289 0.9205157653 0.85357349775 0.94187235826 0.82933800546 0.64274772351 0.17059148596 0.63001736001 0.66420645112 
0.61647648039 0.032717528438 0.45014675222 0.97416482082 0.72794112016 0.92864189413 0.71770172616 0.65698288616 0.034162531595 
0.01006640418 0.18564703873 0.31407319411 0.28387037763 0.12371897388 0.056434720425 0.5155730884 0.53782743325 0.55889833586 
0.99466049281 0.53621373089 0.37551790847 0.50966527859 0.63704692734 0.051022470849 0.488219576 0.12086463235 0.15677765487 
0.13942261724 0.5374879849 0.3616856216 0.22137175495 0.47339184939 0.27894801779 0.077598977588 0.94709188258 0.30685383593 
0.29604385147 0.5884003757 0.3448878017 0.559337133 0.066161791172 0.99497041161 0.9241160578 0.098711457704 0.49990292337 
0.41200015852 0.30771893601 0.61121890287 0.13012259043 0.42254332562 0.089377867213 0.43442628725 0.93942944118 0.65895422903 
0.48033435472 0.13733342333 0.18675552618 0.082294272917 0.039477359725 0.31780165994 0.10942957779 0.76455607879 0.58442658347 
0.84276359653 0.30993504502 0.45827400931 0.29756534116 0.098371987847 0.95321009894 0.74598486128 0.91751002974 0.21815404462 
0.7218640126 0.10651076212 0.76445097713 0.59283771011 0.5719995414 0.57923293654 0.8754568887 0.38796453117 0.5988810019 
0.90775082736 0.7916451565 0.65463592766 0.47181133224 0.6583521073 0.94575183801 0.00052536128284 0.9717131814 0.20561220699 
0.53415435867 0.44547364746 0.5420585428 0.16308410236 0.71688368322 0.6989765272 0.81160899298 0.15081894644 0.72167668829 
0.26400003494 0.94312524644 0.30761692167 0.97465764805 0.84666473006 0.57469781644 0.3753050635 0.48316082021 0.8646224008 
0.84001444438 0.33244702836 0.40686935152 0.58602917062 0.43357141829 0.8083938157 0.99816357838 0.64423984663 0.1413856594 
0.11179107862 0.61415804014 0.72837117873 0.11136684151 0.58953716827 0.6944540317 0.66675345206 0.91603056489 0.19756961855 
0.28995260711 0.66851701371 0.98947324753 0.27067789681 0.70602632983 0.10783750924 0.13168823874 0.77220185101 0.25631582239 
0.070722244661 0.4555779267 0.37976308545 0.054449011963 0.78204917671 0.4146982576 0.19843860843 0.92035275838 0.37581749204 
0.4212925968 0.35358800329 0.36868960113 0.63829256786 0.72193337999 0.052772088643 0.39483463652 0.49272920593 0.27719387673 
0.019202714312 0.59716310917 0.36939064616 0.051751299752 0.98317232621 0.077878635347 0.27904855118 0.055710561233 0.84423802575 
0.088697705197 0.69459038642 0.3851654374 0.42364262491 0.53968449752 0.62538266987 0.52627453897 0.50190237787 0.1046403608 
0.24255097673 0.4832889942 0.049633987784 0.12809154741 0.10495082461 0.96035760647 0.50501145201 0.80242622578 0.83240990124 
0.02966356326 0.41828658758 0.079818275079 0.01493681752 0.31853774946 0.91519004831 0.4681246499 0.83661017018 0.98929553951 
0.671335227 0.43005115115 0.033824502661 0.17619111997 0.18540548107 0.51586646274 0.76094234373 0.37971931986 0.030608360141 
0.71852072855 0.11636352602 0.25016880071 0.024866983317 0.649577565 0.65444755867 0.9873381752 0.60869486525 0.77989238186 
0.11003728747 0.93246743398 0.028476902741 0.54794847676 0.83888792344 0.76822618725 0.15255744393 0.81584033809 0.41219346982 
0.968316077 0.79102817933 0.49843878582 0.89815747487 0.25212407481 0.00088884651456 0.61759008012 0.27632872857 0.71947785592 
0.26752276958 0.52417498206 0.90814665427 0.97905639698 0.58835307023 0.59250003137 0.30599267641 0.037292909187 0.21332673007 
0.87885401444 0.94990737005 0.68693816912 0.80178772367 0.89977691672 0.86229192827 0.69411577894 0.28320448486 0.36571547606 
0.98273257743 0.9151994722 0.37627150372 0.81217000659 0.76243450035 0.38331029213 0.50507740957 0.85778282978 0.79767254899 
0.38362010971 0.39349529036 0.1642947384 0.20176325584 0.11985917102 0.27066898967 0.37202508458 0.90618730488 0.79784319314 
0.83581850105 0.51149825463 0.93200410931 0.17767398262 0.71223411318 0.88422508374 0.55337405399 0.55295084271 0.60738655867 
0.67114214876 0.25699676658 0.27827607613 0.8649500736 0.94643453855 0.19832901415 0.34009606398 0.44190539317 0.78416422689 
0.91293125112 0.35242904033 0.73199345324 0.98973550846 0.16214519396 0.91653669454 0.35047029203 0.075588346539 0.77829171076 
0.3658743327 0.79179721987 0.166899838 0.44265943327 0.77548055088 0.27931653772 0.99014609857 0.40712575137 0.42593497341 
0.99180516594 0.88715162329 0.43684883486 0.14580243548 0.15384084101 0.71995499149 0.81013197893 0.26655116824 0.67257193051 
0.024272618856 0.3073781623 0.1730926079 0.68422127432 0.1814894207 0.45592940562 0.087528840747 0.958461725 0.17814054488 
0.14460360842 0.56903008447 0.48841551806 0.67562048861 0.80638416769 0.35220004416 0.93052562853 0.23211955488 0.77075450459 
0.91409031754 0.04857172964 0.9987765978 0.071833837365 0.70885861125 0.8350596425 0.46558841496 0.13643475019 0.13818459754 
0.63815777757 0.5379760255 0.71568336231 0.86286493435 0.0011317376096 0.10333542023 0.71714188583 0.52526135381 0.51662515122 
0.86941017941 0.024991817398 0.93620091731 0.89592136328 0.074381710025 0.15374974923 0.21240606989 0.35342202373 0.73581642512 
0.44707158794 0.20335275519 0.47821407146 0.6981108246 0.35836609892 0.39235097384 0.24368456924 0.49591429563 0.82509232441 
0.78549805229 0.050779261353 0.56538289763 0.75549213368 0.99398843411 0.25844114047 0.41843771694 0.40594354753 0.33256043125 
0.43754773958 0.7243889679 0.66759891792 0.99211106083 0.75295606367 0.61416303911 0.44034737564 0.43919100469 0.71627600019 
0.44080739786 0.35568857547 0.12452514318 0.62704679802 0.52692879542 0.17562818971 0.62400323087 0.2220014719 0.67140075354 
0.52973642246 0.13347636717 0.50552366976 0.43668177664 0.35918009671 0.56493054803 0.51207101505 0.33490488034 0.10804540247 
0.62697292803 0.42161821569 0.52175763974 0.61699295249 0.91742330834 0.61261726655 0.21552269415 0.37000805056 0.21765907798 
0.69527117218 0.40654835766 0.18805632058 0.8426979609 0.51377850855 0.88290133181 0.53625683113 0.92438660501 0.28266028996 
0.10977401508 0.6155760518 0.87590897721 0.43676361192 0.86646206823 0.64188597303 0.74113635186 0.15045244998 0.17634587994 
0.75622743689 0.30900853753 0.64894188075 0.80458548382 0.91540115906 0.91881226208 0.87822002259 0.048089725709 0.78724851858 
0.9978448467 0.84636419313 0.6422466085 0.67546675458 0.35153425051 0.26688615214 0.91973024317 0.43904755472 0.015834303826 
0.32718250858 0.50774620908 0.88539903786 0.95102859663 0.63152870042 0.030210810848 0.68420686076 0.88020365937 0.41410467282 
0.20440394038 0.69362488621 0.96879178903 0.28822295224 0.073364779831 0.77732428968 0.12121457773 0.73068171291 0.15551212201 
0.71327660859 0.50787702026 0.5013768296 0.072844523215 0.36237934955 0.87168008375 0.836080161 0.68568300333 0.77984890006 
0.45329700823 0.85403913002 0.59700304436 0.27492628521 0.49832777214 0.059096408963 0.98430088284 0.94332382866 0.6821894026 
0.9838604957 0.017011105227 0.49966764836 0.48515190667 0.5059392273 0.31911017703 0.54509682252 0.96509049572 0.53860222397 
0.75357752407 0.6824655378 0.76704259764 0.50981096954 0.68710291581 0.58203187003 0.18133397447 0.32808571283 0.24090882235 
0.76673277098 0.27750763235 0.3057501094 0.83342098909 0.54125359941 0.6833798169 0.20159538532 0.16477526106 0.76240996122 
0.59204216436 0.42053290602 0.41039314932 0.071295312524 0.58399326763 0.75813714664 0.80446007181 0.64540873174 0.91584256344 
0.50644606369 0.33819382727 0.99486525899 0.37197311911 0.068845277774 0.11908865486 0.31806197876 0.73542973081 0.37160791653 
0.23384522508 0.8591500733 0.28487456206 0.64944187692 0.20004891353 0.097454423248 0.088706066015 0.2506793081 0.84048585503 
0.97097150755 0.3238361178 0.70792501662 0.99659932263 0.84493945635 0.61667366198 0.80423486211 0.5986483025 0.95923272818 
0.73053653457 0.076127750545 0.77404765396 0.84283041661 0.24758359944 0.67410105746 0.97873776894 0.85034928578 0.84744609633 
0.11914992032 0.3845964332 0.40574017347 0.6234061155 0.49552971826 0.53145862182 0.58282633043 0.22614665034 0.81307003324 
0.49771703391 0.027314403509 0.3607212805 0.14600845916 0.52807709277 0.70758522953 0.52890272774 0.8395672068 0.774081972 
0.13126467947 0.50334662864 0.37407223833 0.47632026342 0.67832821225 0.45817323351 0.3971251948 0.33133390606 0.13244162203 
0.15334710104 0.64758793836 0.27359615958 0.60965799585 0.11466907836 0.97771901733 0.67455073014 0.2312655003 0.58831759126 
0.1775131084 0.35718135394 0.055880514494 0.45030102355 0.022938811736 0.62643015922 0.46291608415 0.7056634932 0.75666382097 
0.088484806284 0.86797532846 0.74507659629 0.36914605924 0.52978250447 0.97594748027 0.63650858048 0.74519331794 0.47046677618 
0.9467251579 0.68254984616 0.34867529984 0.42698776287 0.66295860902 0.77738147951 0.62416054858 0.43498849061 0.24680209389 
0.37731636009 0.17521037556 0.77419105741 0.65921872625 0.46830733776 0.76340412191 0.35587991522 0.96201003612 0.13093212812 
0.19018455235 0.17555633328 0.15345625217 0.93788945265 0.80262932285 0.97531011112 0.82420849367 0.0092637693156 0.97425936691 
0.31175361938 0.46777248988 0.89673606737 0.76839922474 0.43340230823 0.57609771995 0.20478557678 0.58846593082 0.88160093573 
0.55574866793 0.37708006878 0.67788005558 0.1906510974 0.86402733309 0.7028968439 0.42922208656 0.78771010656 0.45145953486 
0.57189592039 0.85187156716 0.75798861988 0.58373550816 0.94194895999 0.481461235 0.34578419837 0.35187757903 0.94075339408 
0.55066345148 0.82549860691 0.44310168288 0.68666130613 0.007442479831 0.73682031855 0.0080414982232 0.05006365817 0.040759204141 