SPECGRID
3 3 3 1 F /
COORD
-- A comment to ignore
     0.000000     0.000000     0.025000     0.000000     0.000000     0.275000
     0.300000     0.000000    -0.020970     0.333333     0.000000     0.230024
     0.633333     0.000000     0.017700     0.666667     0.000000     0.269976
     1.000000     0.000000    -0.025000     1.000000     0.000000     0.225000
     0.000000     0.333333    -0.007476     0.000000     0.333333     0.242524
     0.300000     0.333333     0.006898     0.333333     0.333333     0.262500
     0.633333     0.333333     0.025496     0.666667     0.333333     0.269976
     1.000000     0.333333    -0.057476     1.000000     0.333333     0.192524
     0.000000     0.666667    -0.007476     0.000000     0.666667     0.242524
     0.300000     0.666667     0.042563     0.333333     0.666667     0.294976
     0.633333     0.666667    -0.002372     0.666667     0.666667     0.237500
     1.000000     0.666667    -0.057476     1.000000     0.666667     0.192524
     0.000000     1.000000     0.025000     0.000000     1.000000     0.275000
     0.300000     1.000000     0.050359     0.333333     1.000000     0.294976
     0.633333     1.000000    -0.038036     0.666667     1.000000     0.205024
     1.000000     1.000000    -0.025000     1.000000     1.000000     0.225000 /
ZCORN
     0.025000    -0.020970    -0.020970     0.017700     0.017700    -0.025000    -0.007476     0.006898
     0.006898     0.025496     0.025496    -0.057476    -0.007476     0.006898     0.006898     0.025496
     0.025496    -0.057476    -0.007476     0.042563     0.042563    -0.002372    -0.002372    -0.057476
    -0.007476     0.042563     0.042563    -0.002372    -0.002372    -0.057476     0.025000     0.050359
     0.050359    -0.038036    -0.038036    -0.025000     0.108333     0.062544     0.062544     0.101924
     0.101924     0.058333     0.075857     0.092094     0.092094     0.107143     0.107143     0.025857
     0.075857     0.092094     0.092094     0.107143     0.107143     0.025857     0.075857     0.126864
     0.126864     0.077593     0.077593     0.025857     0.075857     0.126864     0.126864     0.077593
     0.077593     0.025857     0.108333     0.132083     0.132083     0.042824     0.042824     0.058333
     0.108333     0.062544     0.062544     0.101924     0.101924     0.058333     0.075857     0.092094
     0.092094     0.107143     0.107143     0.025857     0.075857     0.092094     0.092094     0.107143
     0.107143     0.025857     0.075857     0.126864     0.126864     0.077593     0.077593     0.025857
     0.075857     0.126864     0.126864     0.077593     0.077593     0.025857     0.108333     0.132083
     0.132083     0.042824     0.042824     0.058333     0.191667     0.146210     0.146210     0.186019
     0.186019     0.141667     0.159191     0.177299     0.177299     0.188635     0.188635     0.109191
     0.159191     0.177299     0.177299     0.188635     0.188635     0.109191     0.159191     0.211004
     0.211004     0.157546     0.157546     0.109191     0.159191     0.211004     0.211004     0.157546
     0.157546     0.109191     0.191667     0.213619     0.213619     0.123841     0.123841     0.141667
     0.191667     0.146210     0.146210     0.186019     0.186019     0.141667     0.159191     0.177299
     0.177299     0.188635     0.188635     0.109191     0.159191     0.177299     0.177299     0.188635
     0.188635     0.109191     0.159191     0.211004     0.211004     0.157546     0.157546     0.109191
     0.159191     0.211004     0.211004     0.157546     0.157546     0.109191     0.191667     0.213619
     0.213619     0.123841     0.123841     0.141667     0.275000     0.230024     0.230024     0.269976
     0.269976     0.225000     0.242524     0.262500     0.262500     0.269976     0.269976     0.192524
     0.242524     0.262500     0.262500     0.269976     0.269976     0.192524     0.242524     0.294976
     0.294976     0.237500     0.237500     0.192524     0.242524     0.294976     0.294976     0.237500
     0.237500     0.192524     0.275000     0.294976     0.294976     0.205024     0.205024     0.225000 /
ACTNUM
 0 1 0 1 0 1 1 1 1 1 1 1 0 1 1 1 1 1 1 1 1 0 5*1 /
PORO
 27*0.1 /
INCLUDE
'3x3x3_include.grdecl' /
